# vtk DataFile Version 3.0
Triangulation generated with deal.II
ASCII
DATASET UNSTRUCTURED_GRID
POINTS 441 double
0 0 0
0.1 0 0
0 0.1 0
0.1 0.1 0
0 0.05 0
0.1 0.05 0
0.05 0 0
0.05 0.1 0
0.05 0.05 0
0.2 0 0
0.2 0.1 0
0.2 0.05 0
0.15 0 0
0.15 0.1 0
0.15 0.05 0
0.3 0 0
0.3 0.1 0
0.3 0.05 0
0.25 0 0
0.25 0.1 0
0.25 0.05 0
0.4 0 0
0.4 0.1 0
0.4 0.05 0
0.35 0 0
0.35 0.1 0
0.35 0.05 0
0.5 0 0
0.5 0.1 0
0.5 0.05 0
0.45 0 0
0.45 0.1 0
0.45 0.05 0
0.6 0 0
0.6 0.1 0
0.6 0.05 0
0.55 0 0
0.55 0.1 0
0.55 0.05 0
0.7 0 0
0.7 0.1 0
0.7 0.05 0
0.65 0 0
0.65 0.1 0
0.65 0.05 0
0.8 0 0
0.8 0.1 0
0.8 0.05 0
0.75 0 0
0.75 0.1 0
0.75 0.05 0
0.9 0 0
0.9 0.1 0
0.9 0.05 0
0.85 0 0
0.85 0.1 0
0.85 0.05 0
1 0 0
1 0.1 0
1 0.05 0
0.95 0 0
0.95 0.1 0
0.95 0.05 0
0 0.2 0
0.1 0.2 0
0 0.15 0
0.1 0.15 0
0.05 0.2 0
0.05 0.15 0
0.2 0.2 0
0.2 0.15 0
0.15 0.2 0
0.15 0.15 0
0.3 0.2 0
0.3 0.15 0
0.25 0.2 0
0.25 0.15 0
0.4 0.2 0
0.4 0.15 0
0.35 0.2 0
0.35 0.15 0
0.5 0.2 0
0.5 0.15 0
0.45 0.2 0
0.45 0.15 0
0.6 0.2 0
0.6 0.15 0
0.55 0.2 0
0.55 0.15 0
0.7 0.2 0
0.7 0.15 0
0.65 0.2 0
0.65 0.15 0
0.8 0.2 0
0.8 0.15 0
0.75 0.2 0
0.75 0.15 0
0.9 0.2 0
0.9 0.15 0
0.85 0.2 0
0.85 0.15 0
1 0.2 0
1 0.15 0
0.95 0.2 0
0.95 0.15 0
0 0.3 0
0.1 0.3 0
0 0.25 0
0.1 0.25 0
0.05 0.3 0
0.05 0.25 0
0.2 0.3 0
0.2 0.25 0
0.15 0.3 0
0.15 0.25 0
0.3 0.3 0
0.3 0.25 0
0.25 0.3 0
0.25 0.25 0
0.4 0.3 0
0.4 0.25 0
0.35 0.3 0
0.35 0.25 0
0.5 0.3 0
0.5 0.25 0
0.45 0.3 0
0.45 0.25 0
0.6 0.3 0
0.6 0.25 0
0.55 0.3 0
0.55 0.25 0
0.7 0.3 0
0.7 0.25 0
0.65 0.3 0
0.65 0.25 0
0.8 0.3 0
0.8 0.25 0
0.75 0.3 0
0.75 0.25 0
0.9 0.3 0
0.9 0.25 0
0.85 0.3 0
0.85 0.25 0
1 0.3 0
1 0.25 0
0.95 0.3 0
0.95 0.25 0
0 0.4 0
0.1 0.4 0
0 0.35 0
0.1 0.35 0
0.05 0.4 0
0.05 0.35 0
0.2 0.4 0
0.2 0.35 0
0.15 0.4 0
0.15 0.35 0
0.3 0.4 0
0.3 0.35 0
0.25 0.4 0
0.25 0.35 0
0.4 0.4 0
0.4 0.35 0
0.35 0.4 0
0.35 0.35 0
0.5 0.4 0
0.5 0.35 0
0.45 0.4 0
0.45 0.35 0
0.6 0.4 0
0.6 0.35 0
0.55 0.4 0
0.55 0.35 0
0.7 0.4 0
0.7 0.35 0
0.65 0.4 0
0.65 0.35 0
0.8 0.4 0
0.8 0.35 0
0.75 0.4 0
0.75 0.35 0
0.9 0.4 0
0.9 0.35 0
0.85 0.4 0
0.85 0.35 0
1 0.4 0
1 0.35 0
0.95 0.4 0
0.95 0.35 0
0 0.5 0
0.1 0.5 0
0 0.45 0
0.1 0.45 0
0.05 0.5 0
0.05 0.45 0
0.2 0.5 0
0.2 0.45 0
0.15 0.5 0
0.15 0.45 0
0.3 0.5 0
0.3 0.45 0
0.25 0.5 0
0.25 0.45 0
0.4 0.5 0
0.4 0.45 0
0.35 0.5 0
0.35 0.45 0
0.5 0.5 0
0.5 0.45 0
0.45 0.5 0
0.45 0.45 0
0.6 0.5 0
0.6 0.45 0
0.55 0.5 0
0.55 0.45 0
0.7 0.5 0
0.7 0.45 0
0.65 0.5 0
0.65 0.45 0
0.8 0.5 0
0.8 0.45 0
0.75 0.5 0
0.75 0.45 0
0.9 0.5 0
0.9 0.45 0
0.85 0.5 0
0.85 0.45 0
1 0.5 0
1 0.45 0
0.95 0.5 0
0.95 0.45 0
0 0.6 0
0.1 0.6 0
0 0.55 0
0.1 0.55 0
0.05 0.6 0
0.05 0.55 0
0.2 0.6 0
0.2 0.55 0
0.15 0.6 0
0.15 0.55 0
0.3 0.6 0
0.3 0.55 0
0.25 0.6 0
0.25 0.55 0
0.4 0.6 0
0.4 0.55 0
0.35 0.6 0
0.35 0.55 0
0.5 0.6 0
0.5 0.55 0
0.45 0.6 0
0.45 0.55 0
0.6 0.6 0
0.6 0.55 0
0.55 0.6 0
0.55 0.55 0
0.7 0.6 0
0.7 0.55 0
0.65 0.6 0
0.65 0.55 0
0.8 0.6 0
0.8 0.55 0
0.75 0.6 0
0.75 0.55 0
0.9 0.6 0
0.9 0.55 0
0.85 0.6 0
0.85 0.55 0
1 0.6 0
1 0.55 0
0.95 0.6 0
0.95 0.55 0
0 0.7 0
0.1 0.7 0
0 0.65 0
0.1 0.65 0
0.05 0.7 0
0.05 0.65 0
0.2 0.7 0
0.2 0.65 0
0.15 0.7 0
0.15 0.65 0
0.3 0.7 0
0.3 0.65 0
0.25 0.7 0
0.25 0.65 0
0.4 0.7 0
0.4 0.65 0
0.35 0.7 0
0.35 0.65 0
0.5 0.7 0
0.5 0.65 0
0.45 0.7 0
0.45 0.65 0
0.6 0.7 0
0.6 0.65 0
0.55 0.7 0
0.55 0.65 0
0.7 0.7 0
0.7 0.65 0
0.65 0.7 0
0.65 0.65 0
0.8 0.7 0
0.8 0.65 0
0.75 0.7 0
0.75 0.65 0
0.9 0.7 0
0.9 0.65 0
0.85 0.7 0
0.85 0.65 0
1 0.7 0
1 0.65 0
0.95 0.7 0
0.95 0.65 0
0 0.8 0
0.1 0.8 0
0 0.75 0
0.1 0.75 0
0.05 0.8 0
0.05 0.75 0
0.2 0.8 0
0.2 0.75 0
0.15 0.8 0
0.15 0.75 0
0.3 0.8 0
0.3 0.75 0
0.25 0.8 0
0.25 0.75 0
0.4 0.8 0
0.4 0.75 0
0.35 0.8 0
0.35 0.75 0
0.5 0.8 0
0.5 0.75 0
0.45 0.8 0
0.45 0.75 0
0.6 0.8 0
0.6 0.75 0
0.55 0.8 0
0.55 0.75 0
0.7 0.8 0
0.7 0.75 0
0.65 0.8 0
0.65 0.75 0
0.8 0.8 0
0.8 0.75 0
0.75 0.8 0
0.75 0.75 0
0.9 0.8 0
0.9 0.75 0
0.85 0.8 0
0.85 0.75 0
1 0.8 0
1 0.75 0
0.95 0.8 0
0.95 0.75 0
0 0.9 0
0.1 0.9 0
0 0.85 0
0.1 0.85 0
0.05 0.9 0
0.05 0.85 0
0.2 0.9 0
0.2 0.85 0
0.15 0.9 0
0.15 0.85 0
0.3 0.9 0
0.3 0.85 0
0.25 0.9 0
0.25 0.85 0
0.4 0.9 0
0.4 0.85 0
0.35 0.9 0
0.35 0.85 0
0.5 0.9 0
0.5 0.85 0
0.45 0.9 0
0.45 0.85 0
0.6 0.9 0
0.6 0.85 0
0.55 0.9 0
0.55 0.85 0
0.7 0.9 0
0.7 0.85 0
0.65 0.9 0
0.65 0.85 0
0.8 0.9 0
0.8 0.85 0
0.75 0.9 0
0.75 0.85 0
0.9 0.9 0
0.9 0.85 0
0.85 0.9 0
0.85 0.85 0
1 0.9 0
1 0.85 0
0.95 0.9 0
0.95 0.85 0
0 1 0
0.1 1 0
0 0.95 0
0.1 0.95 0
0.05 1 0
0.05 0.95 0
0.2 1 0
0.2 0.95 0
0.15 1 0
0.15 0.95 0
0.3 1 0
0.3 0.95 0
0.25 1 0
0.25 0.95 0
0.4 1 0
0.4 0.95 0
0.35 1 0
0.35 0.95 0
0.5 1 0
0.5 0.95 0
0.45 1 0
0.45 0.95 0
0.6 1 0
0.6 0.95 0
0.55 1 0
0.55 0.95 0
0.7 1 0
0.7 0.95 0
0.65 1 0
0.65 0.95 0
0.8 1 0
0.8 0.95 0
0.75 1 0
0.75 0.95 0
0.9 1 0
0.9 0.95 0
0.85 1 0
0.85 0.95 0
1 1 0
1 0.95 0
0.95 1 0
0.95 0.95 0

CELLS 860 3380
3 0 6 4
3 8 4 6
3 8 6 5
3 1 5 6
3 2 4 7
3 8 7 4
3 8 5 7
3 3 7 5
3 1 12 5
3 14 5 12
3 14 12 11
3 9 11 12
3 3 5 13
3 14 13 5
3 14 11 13
3 10 13 11
3 9 18 11
3 20 11 18
3 20 18 17
3 15 17 18
3 10 11 19
3 20 19 11
3 20 17 19
3 16 19 17
3 15 24 17
3 26 17 24
3 26 24 23
3 21 23 24
3 16 17 25
3 26 25 17
3 26 23 25
3 22 25 23
3 21 30 23
3 32 23 30
3 32 30 29
3 27 29 30
3 22 23 31
3 32 31 23
3 32 29 31
3 28 31 29
3 27 36 29
3 38 29 36
3 38 36 35
3 33 35 36
3 28 29 37
3 38 37 29
3 38 35 37
3 34 37 35
3 33 42 35
3 44 35 42
3 44 42 41
3 39 41 42
3 34 35 43
3 44 43 35
3 44 41 43
3 40 43 41
3 39 48 41
3 50 41 48
3 50 48 47
3 45 47 48
3 40 41 49
3 50 49 41
3 50 47 49
3 46 49 47
3 45 54 47
3 56 47 54
3 56 54 53
3 51 53 54
3 46 47 55
3 56 55 47
3 56 53 55
3 52 55 53
3 51 60 53
3 62 53 60
3 62 60 59
3 57 59 60
3 52 53 61
3 62 61 53
3 62 59 61
3 58 61 59
3 2 7 65
3 68 65 7
3 68 7 66
3 3 66 7
3 63 65 67
3 68 67 65
3 68 66 67
3 64 67 66
3 3 13 66
3 72 66 13
3 72 13 70
3 10 70 13
3 64 66 71
3 72 71 66
3 72 70 71
3 69 71 70
3 10 19 70
3 76 70 19
3 76 19 74
3 16 74 19
3 69 70 75
3 76 75 70
3 76 74 75
3 73 75 74
3 16 25 74
3 80 74 25
3 80 25 78
3 22 78 25
3 73 74 79
3 80 79 74
3 80 78 79
3 77 79 78
3 22 31 78
3 84 78 31
3 84 31 82
3 28 82 31
3 77 78 83
3 84 83 78
3 84 82 83
3 81 83 82
3 28 37 82
3 88 82 37
3 88 37 86
3 34 86 37
3 81 82 87
3 88 87 82
3 88 86 87
3 85 87 86
3 34 43 86
3 92 86 43
3 92 43 90
3 40 90 43
3 85 86 91
3 92 91 86
3 92 90 91
3 89 91 90
3 40 49 90
3 96 90 49
3 96 49 94
3 46 94 49
3 89 90 95
3 96 95 90
3 96 94 95
3 93 95 94
3 46 55 94
3 100 94 55
3 100 55 98
3 52 98 55
3 93 94 99
3 100 99 94
3 100 98 99
3 97 99 98
3 52 61 98
3 104 98 61
3 104 61 102
3 58 102 61
3 97 98 103
3 104 103 98
3 104 102 103
3 101 103 102
3 63 67 107
3 110 107 67
3 110 67 108
3 64 108 67
3 105 107 109
3 110 109 107
3 110 108 109
3 106 109 108
3 64 71 108
3 114 108 71
3 114 71 112
3 69 112 71
3 106 108 113
3 114 113 108
3 114 112 113
3 111 113 112
3 69 75 112
3 118 112 75
3 118 75 116
3 73 116 75
3 111 112 117
3 118 117 112
3 118 116 117
3 115 117 116
3 73 79 116
3 122 116 79
3 122 79 120
3 77 120 79
3 115 116 121
3 122 121 116
3 122 120 121
3 119 121 120
3 77 83 120
3 126 120 83
3 126 83 124
3 81 124 83
3 119 120 125
3 126 125 120
3 126 124 125
3 123 125 124
3 81 87 124
3 130 124 87
3 130 87 128
3 85 128 87
3 123 124 129
3 130 129 124
3 130 128 129
3 127 129 128
3 85 91 128
3 134 128 91
3 134 91 132
3 89 132 91
3 127 128 133
3 134 133 128
3 134 132 133
3 131 133 132
3 89 95 132
3 138 132 95
3 138 95 136
3 93 136 95
3 131 132 137
3 138 137 132
3 138 136 137
3 135 137 136
3 93 99 136
3 142 136 99
3 142 99 140
3 97 140 99
3 135 136 141
3 142 141 136
3 142 140 141
3 139 141 140
3 97 103 140
3 146 140 103
3 146 103 144
3 101 144 103
3 139 140 145
3 146 145 140
3 146 144 145
3 143 145 144
3 105 109 149
3 152 149 109
3 152 109 150
3 106 150 109
3 147 149 151
3 152 151 149
3 152 150 151
3 148 151 150
3 106 113 150
3 156 150 113
3 156 113 154
3 111 154 113
3 148 150 155
3 156 155 150
3 156 154 155
3 153 155 154
3 111 117 154
3 160 154 117
3 160 117 158
3 115 158 117
3 153 154 159
3 160 159 154
3 160 158 159
3 157 159 158
3 115 121 158
3 164 158 121
3 164 121 162
3 119 162 121
3 157 158 163
3 164 163 158
3 164 162 163
3 161 163 162
3 119 125 162
3 168 162 125
3 168 125 166
3 123 166 125
3 161 162 167
3 168 167 162
3 168 166 167
3 165 167 166
3 123 129 166
3 172 166 129
3 172 129 170
3 127 170 129
3 165 166 171
3 172 171 166
3 172 170 171
3 169 171 170
3 127 133 170
3 176 170 133
3 176 133 174
3 131 174 133
3 169 170 175
3 176 175 170
3 176 174 175
3 173 175 174
3 131 137 174
3 180 174 137
3 180 137 178
3 135 178 137
3 173 174 179
3 180 179 174
3 180 178 179
3 177 179 178
3 135 141 178
3 184 178 141
3 184 141 182
3 139 182 141
3 177 178 183
3 184 183 178
3 184 182 183
3 181 183 182
3 139 145 182
3 188 182 145
3 188 145 186
3 143 186 145
3 181 182 187
3 188 187 182
3 188 186 187
3 185 187 186
3 147 151 191
3 194 191 151
3 194 151 192
3 148 192 151
3 189 191 193
3 194 193 191
3 194 192 193
3 190 193 192
3 148 155 192
3 198 192 155
3 198 155 196
3 153 196 155
3 190 192 197
3 198 197 192
3 198 196 197
3 195 197 196
3 153 159 196
3 202 196 159
3 202 159 200
3 157 200 159
3 195 196 201
3 202 201 196
3 202 200 201
3 199 201 200
3 157 163 200
3 206 200 163
3 206 163 204
3 161 204 163
3 199 200 205
3 206 205 200
3 206 204 205
3 203 205 204
3 161 167 204
3 210 204 167
3 210 167 208
3 165 208 167
3 203 204 209
3 210 209 204
3 210 208 209
3 207 209 208
3 165 171 208
3 214 208 171
3 214 171 212
3 169 212 171
3 207 208 213
3 214 213 208
3 214 212 213
3 211 213 212
3 169 175 212
3 218 212 175
3 218 175 216
3 173 216 175
3 211 212 217
3 218 217 212
3 218 216 217
3 215 217 216
3 173 179 216
3 222 216 179
3 222 179 220
3 177 220 179
3 215 216 221
3 222 221 216
3 222 220 221
3 219 221 220
3 177 183 220
3 226 220 183
3 226 183 224
3 181 224 183
3 219 220 225
3 226 225 220
3 226 224 225
3 223 225 224
3 181 187 224
3 230 224 187
3 230 187 228
3 185 228 187
3 223 224 229
3 230 229 224
3 230 228 229
3 227 229 228
3 189 193 233
3 236 233 193
3 236 193 234
3 190 234 193
3 231 233 235
3 236 235 233
3 236 234 235
3 232 235 234
3 190 197 234
3 240 234 197
3 240 197 238
3 195 238 197
3 232 234 239
3 240 239 234
3 240 238 239
3 237 239 238
3 195 201 238
3 244 238 201
3 244 201 242
3 199 242 201
3 237 238 243
3 244 243 238
3 244 242 243
3 241 243 242
3 199 205 242
3 248 242 205
3 248 205 246
3 203 246 205
3 241 242 247
3 248 247 242
3 248 246 247
3 245 247 246
3 203 209 246
3 252 246 209
3 252 209 250
3 207 250 209
3 245 246 251
3 252 251 246
3 252 250 251
3 249 251 250
3 207 213 250
3 256 250 213
3 256 213 254
3 211 254 213
3 249 250 255
3 256 255 250
3 256 254 255
3 253 255 254
3 211 217 254
3 260 254 217
3 260 217 258
3 215 258 217
3 253 254 259
3 260 259 254
3 260 258 259
3 257 259 258
3 215 221 258
3 264 258 221
3 264 221 262
3 219 262 221
3 257 258 263
3 264 263 258
3 264 262 263
3 261 263 262
3 219 225 262
3 268 262 225
3 268 225 266
3 223 266 225
3 261 262 267
3 268 267 262
3 268 266 267
3 265 267 266
3 223 229 266
3 272 266 229
3 272 229 270
3 227 270 229
3 265 266 271
3 272 271 266
3 272 270 271
3 269 271 270
3 231 235 275
3 278 275 235
3 278 235 276
3 232 276 235
3 273 275 277
3 278 277 275
3 278 276 277
3 274 277 276
3 232 239 276
3 282 276 239
3 282 239 280
3 237 280 239
3 274 276 281
3 282 281 276
3 282 280 281
3 279 281 280
3 237 243 280
3 286 280 243
3 286 243 284
3 241 284 243
3 279 280 285
3 286 285 280
3 286 284 285
3 283 285 284
3 241 247 284
3 290 284 247
3 290 247 288
3 245 288 247
3 283 284 289
3 290 289 284
3 290 288 289
3 287 289 288
3 245 251 288
3 294 288 251
3 294 251 292
3 249 292 251
3 287 288 293
3 294 293 288
3 294 292 293
3 291 293 292
3 249 255 292
3 298 292 255
3 298 255 296
3 253 296 255
3 291 292 297
3 298 297 292
3 298 296 297
3 295 297 296
3 253 259 296
3 302 296 259
3 302 259 300
3 257 300 259
3 295 296 301
3 302 301 296
3 302 300 301
3 299 301 300
3 257 263 300
3 306 300 263
3 306 263 304
3 261 304 263
3 299 300 305
3 306 305 300
3 306 304 305
3 303 305 304
3 261 267 304
3 310 304 267
3 310 267 308
3 265 308 267
3 303 304 309
3 310 309 304
3 310 308 309
3 307 309 308
3 265 271 308
3 314 308 271
3 314 271 312
3 269 312 271
3 307 308 313
3 314 313 308
3 314 312 313
3 311 313 312
3 273 277 317
3 320 317 277
3 320 277 318
3 274 318 277
3 315 317 319
3 320 319 317
3 320 318 319
3 316 319 318
3 274 281 318
3 324 318 281
3 324 281 322
3 279 322 281
3 316 318 323
3 324 323 318
3 324 322 323
3 321 323 322
3 279 285 322
3 328 322 285
3 328 285 326
3 283 326 285
3 321 322 327
3 328 327 322
3 328 326 327
3 325 327 326
3 283 289 326
3 332 326 289
3 332 289 330
3 287 330 289
3 325 326 331
3 332 331 326
3 332 330 331
3 329 331 330
3 287 293 330
3 336 330 293
3 336 293 334
3 291 334 293
3 329 330 335
3 336 335 330
3 336 334 335
3 333 335 334
3 291 297 334
3 340 334 297
3 340 297 338
3 295 338 297
3 333 334 339
3 340 339 334
3 340 338 339
3 337 339 338
3 295 301 338
3 344 338 301
3 344 301 342
3 299 342 301
3 337 338 343
3 344 343 338
3 344 342 343
3 341 343 342
3 299 305 342
3 348 342 305
3 348 305 346
3 303 346 305
3 341 342 347
3 348 347 342
3 348 346 347
3 345 347 346
3 303 309 346
3 352 346 309
3 352 309 350
3 307 350 309
3 345 346 351
3 352 351 346
3 352 350 351
3 349 351 350
3 307 313 350
3 356 350 313
3 356 313 354
3 311 354 313
3 349 350 355
3 356 355 350
3 356 354 355
3 353 355 354
3 315 319 359
3 362 359 319
3 362 319 360
3 316 360 319
3 357 359 361
3 362 361 359
3 362 360 361
3 358 361 360
3 316 323 360
3 366 360 323
3 366 323 364
3 321 364 323
3 358 360 365
3 366 365 360
3 366 364 365
3 363 365 364
3 321 327 364
3 370 364 327
3 370 327 368
3 325 368 327
3 363 364 369
3 370 369 364
3 370 368 369
3 367 369 368
3 325 331 368
3 374 368 331
3 374 331 372
3 329 372 331
3 367 368 373
3 374 373 368
3 374 372 373
3 371 373 372
3 329 335 372
3 378 372 335
3 378 335 376
3 333 376 335
3 371 372 377
3 378 377 372
3 378 376 377
3 375 377 376
3 333 339 376
3 382 376 339
3 382 339 380
3 337 380 339
3 375 376 381
3 382 381 376
3 382 380 381
3 379 381 380
3 337 343 380
3 386 380 343
3 386 343 384
3 341 384 343
3 379 380 385
3 386 385 380
3 386 384 385
3 383 385 384
3 341 347 384
3 390 384 347
3 390 347 388
3 345 388 347
3 383 384 389
3 390 389 384
3 390 388 389
3 387 389 388
3 345 351 388
3 394 388 351
3 394 351 392
3 349 392 351
3 387 388 393
3 394 393 388
3 394 392 393
3 391 393 392
3 349 355 392
3 398 392 355
3 398 355 396
3 353 396 355
3 391 392 397
3 398 397 392
3 398 396 397
3 395 397 396
3 357 361 401
3 404 401 361
3 404 361 402
3 358 402 361
3 399 401 403
3 404 403 401
3 404 402 403
3 400 403 402
3 358 365 402
3 408 402 365
3 408 365 406
3 363 406 365
3 400 402 407
3 408 407 402
3 408 406 407
3 405 407 406
3 363 369 406
3 412 406 369
3 412 369 410
3 367 410 369
3 405 406 411
3 412 411 406
3 412 410 411
3 409 411 410
3 367 373 410
3 416 410 373
3 416 373 414
3 371 414 373
3 409 410 415
3 416 415 410
3 416 414 415
3 413 415 414
3 371 377 414
3 420 414 377
3 420 377 418
3 375 418 377
3 413 414 419
3 420 419 414
3 420 418 419
3 417 419 418
3 375 381 418
3 424 418 381
3 424 381 422
3 379 422 381
3 417 418 423
3 424 423 418
3 424 422 423
3 421 423 422
3 379 385 422
3 428 422 385
3 428 385 426
3 383 426 385
3 421 422 427
3 428 427 422
3 428 426 427
3 425 427 426
3 383 389 426
3 432 426 389
3 432 389 430
3 387 430 389
3 425 426 431
3 432 431 426
3 432 430 431
3 429 431 430
3 387 393 430
3 436 430 393
3 436 393 434
3 391 434 393
3 429 430 435
3 436 435 430
3 436 434 435
3 433 435 434
3 391 397 434
3 440 434 397
3 440 397 438
3 395 438 397
3 433 434 439
3 440 439 434
3 440 438 439
3 437 439 438
2 0 6
2 1 12
2 6 1
2 9 18
2 12 9
2 15 24
2 18 15
2 21 30
2 24 21
2 27 36
2 30 27
2 33 42
2 36 33
2 39 48
2 42 39
2 45 54
2 48 45
2 51 60
2 54 51
2 57 59
2 58 102
2 59 58
2 60 57
2 101 144
2 102 101
2 143 186
2 144 143
2 185 228
2 186 185
2 227 270
2 228 227
2 269 312
2 270 269
2 311 354
2 312 311
2 353 396
2 354 353
2 395 438
2 396 395
2 400 403
2 403 399
2 405 407
2 407 400
2 409 411
2 411 405
2 413 415
2 415 409
2 417 419
2 419 413
2 421 423
2 423 417
2 425 427
2 427 421
2 429 431
2 431 425
2 433 435
2 435 429
2 437 439
2 438 437
2 439 433

CELL_TYPES 860
5 5 5 5 5 5 5 5 5 5 5 5 5 5 5 5 5 5 5 5 5 5 5 5 5 5 5 5 5 5 5 5 5 5 5 5 5 5 5 5 5 5 5 5 5 5 5 5 5 5 5 5 5 5 5 5 5 5 5 5 5 5 5 5 5 5 5 5 5 5 5 5 5 5 5 5 5 5 5 5 5 5 5 5 5 5 5 5 5 5 5 5 5 5 5 5 5 5 5 5 5 5 5 5 5 5 5 5 5 5 5 5 5 5 5 5 5 5 5 5 5 5 5 5 5 5 5 5 5 5 5 5 5 5 5 5 5 5 5 5 5 5 5 5 5 5 5 5 5 5 5 5 5 5 5 5 5 5 5 5 5 5 5 5 5 5 5 5 5 5 5 5 5 5 5 5 5 5 5 5 5 5 5 5 5 5 5 5 5 5 5 5 5 5 5 5 5 5 5 5 5 5 5 5 5 5 5 5 5 5 5 5 5 5 5 5 5 5 5 5 5 5 5 5 5 5 5 5 5 5 5 5 5 5 5 5 5 5 5 5 5 5 5 5 5 5 5 5 5 5 5 5 5 5 5 5 5 5 5 5 5 5 5 5 5 5 5 5 5 5 5 5 5 5 5 5 5 5 5 5 5 5 5 5 5 5 5 5 5 5 5 5 5 5 5 5 5 5 5 5 5 5 5 5 5 5 5 5 5 5 5 5 5 5 5 5 5 5 5 5 5 5 5 5 5 5 5 5 5 5 5 5 5 5 5 5 5 5 5 5 5 5 5 5 5 5 5 5 5 5 5 5 5 5 5 5 5 5 5 5 5 5 5 5 5 5 5 5 5 5 5 5 5 5 5 5 5 5 5 5 5 5 5 5 5 5 5 5 5 5 5 5 5 5 5 5 5 5 5 5 5 5 5 5 5 5 5 5 5 5 5 5 5 5 5 5 5 5 5 5 5 5 5 5 5 5 5 5 5 5 5 5 5 5 5 5 5 5 5 5 5 5 5 5 5 5 5 5 5 5 5 5 5 5 5 5 5 5 5 5 5 5 5 5 5 5 5 5 5 5 5 5 5 5 5 5 5 5 5 5 5 5 5 5 5 5 5 5 5 5 5 5 5 5 5 5 5 5 5 5 5 5 5 5 5 5 5 5 5 5 5 5 5 5 5 5 5 5 5 5 5 5 5 5 5 5 5 5 5 5 5 5 5 5 5 5 5 5 5 5 5 5 5 5 5 5 5 5 5 5 5 5 5 5 5 5 5 5 5 5 5 5 5 5 5 5 5 5 5 5 5 5 5 5 5 5 5 5 5 5 5 5 5 5 5 5 5 5 5 5 5 5 5 5 5 5 5 5 5 5 5 5 5 5 5 5 5 5 5 5 5 5 5 5 5 5 5 5 5 5 5 5 5 5 5 5 5 5 5 5 5 5 5 5 5 5 5 5 5 5 5 5 5 5 5 5 5 5 5 5 5 5 5 5 5 5 5 5 5 5 5 5 5 5 5 5 5 5 5 5 5 5 5 5 5 5 5 5 5 5 5 5 5 5 5 5 5 5 5 5 5 5 5 5 5 5 5 5 5 5 5 5 5 5 5 5 5 5 5 5 5 5 5 5 5 5 5 5 5 5 5 5 5 5 5 5 5 5 5 5 5 5 5 5 5 5 5 5 5 5 5 5 5 5 5 5 5 5 5 5 5 5 5 5 5 5 5 5 5 5 5 5 5 5 5 5 5 5 5 5 5 5 5 5 5 5 5 5 5 5 5 5 5 5 5 5 5 5 5 5 5 5 5 5 5 5 5 5 5 5 
3 3 3 3 3 3 3 3 3 3 3 3 3 3 3 3 3 3 3 3 3 3 3 3 3 3 3 3 3 3 3 3 3 3 3 3 3 3 3 3 3 3 3 3 3 3 3 3 3 3 3 3 3 3 3 3 3 3 3 3 


CELL_DATA 860
SCALARS MaterialID int 1
LOOKUP_TABLE default
3 3 3 3 3 3 3 3 3 3 3 3 3 3 3 3 3 3 3 3 3 3 3 3 3 3 3 3 3 3 3 3 3 3 3 3 3 3 3 3 3 3 3 3 3 3 3 3 3 3 3 3 3 3 3 3 3 3 3 3 3 3 3 3 3 3 3 3 3 3 3 3 3 3 3 3 3 3 3 3 3 3 3 3 3 3 3 3 3 3 3 3 3 3 3 3 3 3 3 3 3 3 3 3 3 3 3 3 3 3 3 3 3 3 3 3 3 3 3 3 3 3 3 3 3 3 3 3 3 3 3 3 3 3 3 3 3 3 3 3 3 3 3 3 3 3 3 3 3 3 3 3 3 3 3 3 3 3 3 3 3 3 3 3 3 3 3 3 3 3 3 3 3 3 3 3 3 3 3 3 3 3 3 3 3 3 3 3 3 3 3 3 3 3 3 3 3 3 3 3 3 3 3 3 3 3 3 3 3 3 3 3 3 3 3 3 3 3 3 3 3 3 3 3 3 3 3 3 3 3 3 3 3 3 3 3 3 3 3 3 3 3 3 3 3 3 3 3 3 3 3 3 3 3 3 3 3 3 3 3 3 3 3 3 3 3 3 3 3 3 3 3 3 3 3 3 3 3 3 3 3 3 3 3 3 3 3 3 3 3 3 3 3 3 3 3 3 3 3 3 3 3 3 3 3 3 3 3 3 3 3 3 3 3 3 3 3 3 3 3 3 3 3 3 3 3 3 3 3 3 3 3 3 3 3 3 3 3 3 3 3 3 3 3 3 3 3 3 3 3 3 3 3 3 3 3 3 3 3 3 3 3 3 3 3 3 3 3 3 3 3 3 3 3 3 3 3 3 3 3 3 3 3 3 3 3 3 3 3 3 3 3 3 3 3 3 3 3 3 3 3 3 3 3 3 3 3 3 3 3 3 3 3 3 3 3 3 3 3 3 3 3 3 3 3 3 3 3 3 3 3 3 3 3 3 3 3 3 3 3 3 3 3 3 3 3 3 3 3 3 3 3 3 3 3 3 3 3 3 3 3 3 3 3 3 3 3 3 3 3 3 3 3 3 3 3 3 3 3 3 3 3 3 3 3 3 3 3 3 3 3 3 3 3 3 3 3 3 3 3 3 3 3 3 3 3 3 3 3 3 3 3 3 3 3 3 3 3 3 3 3 3 3 3 3 3 3 3 3 3 3 3 3 3 3 3 3 3 3 3 3 3 3 3 3 3 3 3 3 3 3 3 3 3 3 3 3 3 3 3 3 3 3 3 3 3 3 3 3 3 3 3 3 3 3 3 3 3 3 3 3 3 3 3 3 3 3 3 3 3 3 3 3 3 3 3 3 3 3 3 3 3 3 3 3 3 3 3 3 3 3 3 3 3 3 3 3 3 3 3 3 3 3 3 3 3 3 3 3 3 3 3 3 3 3 3 3 3 3 3 3 3 3 3 3 3 3 3 3 3 3 3 3 3 3 3 3 3 3 3 3 3 3 3 3 3 3 3 3 3 3 3 3 3 3 3 3 3 3 3 3 3 3 3 3 3 3 3 3 3 3 3 3 3 3 3 3 3 3 3 3 3 3 3 3 3 3 3 3 3 3 3 3 3 3 3 3 3 3 3 3 3 3 3 3 3 3 3 3 3 3 3 3 3 3 3 3 3 3 3 3 3 3 3 3 3 3 3 3 3 3 3 3 3 3 3 3 3 3 3 3 3 3 3 3 3 3 3 3 3 3 3 3 3 3 3 3 3 3 3 3 3 3 3 3 3 3 3 3 3 3 3 3 3 3 3 3 3 3 3 
2 2 2 2 2 2 2 2 2 2 2 2 2 2 2 2 2 2 2 1 1 1 2 1 1 1 1 1 1 1 1 1 1 1 1 1 1 1 1 3 3 3 3 3 3 3 3 3 3 3 3 3 3 3 3 3 3 3 1 3 


SCALARS ManifoldID int 1
LOOKUP_TABLE default
-1 -1 -1 -1 -1 -1 -1 -1 -1 -1 -1 -1 -1 -1 -1 -1 -1 -1 -1 -1 -1 -1 -1 -1 -1 -1 -1 -1 -1 -1 -1 -1 -1 -1 -1 -1 -1 -1 -1 -1 -1 -1 -1 -1 -1 -1 -1 -1 -1 -1 -1 -1 -1 -1 -1 -1 -1 -1 -1 -1 -1 -1 -1 -1 -1 -1 -1 -1 -1 -1 -1 -1 -1 -1 -1 -1 -1 -1 -1 -1 -1 -1 -1 -1 -1 -1 -1 -1 -1 -1 -1 -1 -1 -1 -1 -1 -1 -1 -1 -1 -1 -1 -1 -1 -1 -1 -1 -1 -1 -1 -1 -1 -1 -1 -1 -1 -1 -1 -1 -1 -1 -1 -1 -1 -1 -1 -1 -1 -1 -1 -1 -1 -1 -1 -1 -1 -1 -1 -1 -1 -1 -1 -1 -1 -1 -1 -1 -1 -1 -1 -1 -1 -1 -1 -1 -1 -1 -1 -1 -1 -1 -1 -1 -1 -1 -1 -1 -1 -1 -1 -1 -1 -1 -1 -1 -1 -1 -1 -1 -1 -1 -1 -1 -1 -1 -1 -1 -1 -1 -1 -1 -1 -1 -1 -1 -1 -1 -1 -1 -1 -1 -1 -1 -1 -1 -1 -1 -1 -1 -1 -1 -1 -1 -1 -1 -1 -1 -1 -1 -1 -1 -1 -1 -1 -1 -1 -1 -1 -1 -1 -1 -1 -1 -1 -1 -1 -1 -1 -1 -1 -1 -1 -1 -1 -1 -1 -1 -1 -1 -1 -1 -1 -1 -1 -1 -1 -1 -1 -1 -1 -1 -1 -1 -1 -1 -1 -1 -1 -1 -1 -1 -1 -1 -1 -1 -1 -1 -1 -1 -1 -1 -1 -1 -1 -1 -1 -1 -1 -1 -1 -1 -1 -1 -1 -1 -1 -1 -1 -1 -1 -1 -1 -1 -1 -1 -1 -1 -1 -1 -1 -1 -1 -1 -1 -1 -1 -1 -1 -1 -1 -1 -1 -1 -1 -1 -1 -1 -1 -1 -1 -1 -1 -1 -1 -1 -1 -1 -1 -1 -1 -1 -1 -1 -1 -1 -1 -1 -1 -1 -1 -1 -1 -1 -1 -1 -1 -1 -1 -1 -1 -1 -1 -1 -1 -1 -1 -1 -1 -1 -1 -1 -1 -1 -1 -1 -1 -1 -1 -1 -1 -1 -1 -1 -1 -1 -1 -1 -1 -1 -1 -1 -1 -1 -1 -1 -1 -1 -1 -1 -1 -1 -1 -1 -1 -1 -1 -1 -1 -1 -1 -1 -1 -1 -1 -1 -1 -1 -1 -1 -1 -1 -1 -1 -1 -1 -1 -1 -1 -1 -1 -1 -1 -1 -1 -1 -1 -1 -1 -1 -1 -1 -1 -1 -1 -1 -1 -1 -1 -1 -1 -1 -1 -1 -1 -1 -1 -1 -1 -1 -1 -1 -1 -1 -1 -1 -1 -1 -1 -1 -1 -1 -1 -1 -1 -1 -1 -1 -1 -1 -1 -1 -1 -1 -1 -1 -1 -1 -1 -1 -1 -1 -1 -1 -1 -1 -1 -1 -1 -1 -1 -1 -1 -1 -1 -1 -1 -1 -1 -1 -1 -1 -1 -1 -1 -1 -1 -1 -1 -1 -1 -1 -1 -1 -1 -1 -1 -1 -1 -1 -1 -1 -1 -1 -1 -1 -1 -1 -1 -1 -1 -1 -1 -1 -1 -1 -1 -1 -1 -1 -1 -1 -1 -1 -1 -1 -1 -1 -1 -1 -1 -1 -1 -1 -1 -1 -1 -1 -1 -1 -1 -1 -1 -1 -1 -1 -1 -1 -1 -1 -1 -1 -1 -1 -1 -1 -1 -1 -1 -1 -1 -1 -1 -1 -1 -1 -1 -1 -1 -1 -1 -1 -1 -1 -1 -1 -1 -1 -1 -1 -1 -1 -1 -1 -1 -1 -1 -1 -1 -1 -1 -1 -1 -1 -1 -1 -1 -1 -1 -1 -1 -1 -1 -1 -1 -1 -1 -1 -1 -1 -1 -1 -1 -1 -1 -1 -1 -1 -1 -1 -1 -1 -1 -1 -1 -1 -1 -1 -1 -1 -1 -1 -1 -1 -1 -1 -1 -1 -1 -1 -1 -1 -1 -1 -1 -1 -1 -1 -1 -1 -1 -1 -1 -1 -1 -1 -1 -1 -1 -1 -1 -1 -1 -1 -1 -1 -1 -1 -1 -1 -1 -1 -1 -1 -1 -1 -1 -1 -1 -1 -1 -1 -1 -1 -1 -1 -1 -1 -1 -1 -1 -1 -1 -1 -1 -1 -1 -1 -1 -1 -1 -1 -1 -1 -1 -1 -1 -1 -1 -1 -1 -1 -1 -1 -1 -1 -1 -1 -1 -1 -1 -1 -1 -1 -1 -1 -1 -1 -1 -1 -1 -1 -1 -1 -1 -1 -1 -1 -1 -1 -1 -1 -1 -1 -1 -1 -1 -1 -1 -1 -1 -1 -1 -1 -1 -1 -1 -1 -1 -1 -1 -1 -1 -1 -1 -1 -1 -1 -1 -1 -1 
-1 -1 -1 -1 -1 -1 -1 -1 -1 -1 -1 -1 -1 -1 -1 -1 -1 -1 -1 -1 -1 -1 -1 -1 -1 -1 -1 -1 -1 -1 -1 -1 -1 -1 -1 -1 -1 -1 -1 -1 -1 -1 -1 -1 -1 -1 -1 -1 -1 -1 -1 -1 -1 -1 -1 -1 -1 -1 -1 -1 

